<?xml version="1.0" encoding="UTF-8"?>

<!-- generated on 03/16/19 23:30:37 by Eclipse SUMO Version 1.1.0
<configuration xmlns:xsi="http://www.w3.org/2001/XMLSchema-instance" xsi:noNamespaceSchemaLocation="http://sumo.dlr.de/xsd/sumoConfiguration.xsd">

    <input>
        <net-file value="data/map.net.xml"/>
        <route-files value="data/map.rou.xml"/>
        <additional-files value="data/map.det.xml"/>
    </input>

    <output>
        <tripinfo-output value="data/tripinfo.xml"/>
    </output>

    <time>
        <begin value="0"/>
    </time>

    <processing>
        <time-to-teleport value="-1"/>
    </processing>

    <report>
        <verbose value="false"/>
        <no-warnings value="true"/>
        <no-step-log value="true"/>
    </report>

    <traci_server>
        <remote-port value="50507"/>
    </traci_server>

    <gui_only>
        <gui-settings-file value="data/customGUISettings.xml"/>
        <start value="true"/>
    </gui_only>

</configuration>
-->

<tripinfos xmlns:xsi="http://www.w3.org/2001/XMLSchema-instance" xsi:noNamespaceSchemaLocation="http://sumo.dlr.de/xsd/tripinfo_file.xsd">
    <tripinfo id="right_1" depart="2.00" departLane="393627613_0" departPos="4.30" departSpeed="0.00" departDelay="0.00" arrival="49.00" arrivalLane="393645137_0" arrivalPos="291.20" arrivalSpeed="16.14" duration="47.00" routeLength="635.85" waitingTime="0.00" waitingCount="0" stopTime="0.00" timeLoss="6.94" rerouteNo="0" devices="tripinfo_right_1" vType="fast" speedFactor="0.94" vaporized=""/>
    <tripinfo id="through_2" depart="3.00" departLane="-393645137_0" departPos="4.30" departSpeed="0.00" departDelay="0.00" arrival="51.00" arrivalLane="-393645138_0" arrivalPos="300.77" arrivalSpeed="14.62" duration="48.00" routeLength="690.22" waitingTime="0.00" waitingCount="0" stopTime="0.00" timeLoss="4.78" rerouteNo="0" devices="tripinfo_through_2" vType="fast" speedFactor="1.01" vaporized=""/>
    <tripinfo id="through_0" depart="2.00" departLane="393645138_0" departPos="4.30" departSpeed="0.00" departDelay="0.00" arrival="51.00" arrivalLane="393645137_0" arrivalPos="291.20" arrivalSpeed="15.32" duration="49.00" routeLength="691.49" waitingTime="0.00" waitingCount="0" stopTime="0.00" timeLoss="5.54" rerouteNo="0" devices="tripinfo_through_0" vType="fast" speedFactor="1.06" vaporized=""/>
    <tripinfo id="through_3" depart="4.00" departLane="393627613_0" departPos="4.30" departSpeed="0.00" departDelay="1.00" arrival="53.00" arrivalLane="393625777_0" arrivalPos="296.14" arrivalSpeed="14.53" duration="49.00" routeLength="618.94" waitingTime="0.00" waitingCount="0" stopTime="0.00" timeLoss="10.25" rerouteNo="0" devices="tripinfo_through_3" vType="fast" speedFactor="1.08" vaporized=""/>
    <tripinfo id="through_5" depart="7.00" departLane="393627613_0" departPos="4.90" departSpeed="0.00" departDelay="2.00" arrival="54.00" arrivalLane="393625777_0" arrivalPos="296.14" arrivalSpeed="14.00" duration="47.00" routeLength="618.34" waitingTime="0.00" waitingCount="0" stopTime="0.00" timeLoss="4.96" rerouteNo="0" devices="tripinfo_through_5" vType="norm" speedFactor="0.83" vaporized=""/>
    <tripinfo id="through_7" depart="10.00" departLane="393645138_0" departPos="4.30" departSpeed="0.00" departDelay="1.00" arrival="60.00" arrivalLane="393645137_0" arrivalPos="291.20" arrivalSpeed="14.92" duration="50.00" routeLength="691.49" waitingTime="0.00" waitingCount="0" stopTime="0.00" timeLoss="6.92" rerouteNo="0" devices="tripinfo_through_7" vType="fast" speedFactor="0.89" vaporized=""/>
    <tripinfo id="through_6" depart="8.00" departLane="393645138_0" departPos="4.30" departSpeed="0.00" departDelay="0.00" arrival="62.00" arrivalLane="393645137_0" arrivalPos="291.20" arrivalSpeed="16.03" duration="54.00" routeLength="691.49" waitingTime="0.00" waitingCount="0" stopTime="0.00" timeLoss="10.36" rerouteNo="0" devices="tripinfo_through_6" vType="fast" speedFactor="1.05" vaporized=""/>
    <tripinfo id="through_8" depart="9.00" departLane="-393645137_0" departPos="4.30" departSpeed="0.00" departDelay="0.00" arrival="63.00" arrivalLane="-393645138_1" arrivalPos="300.77" arrivalSpeed="14.98" duration="54.00" routeLength="690.22" waitingTime="0.00" waitingCount="0" stopTime="0.00" timeLoss="10.63" rerouteNo="0" devices="tripinfo_through_8" vType="fast" speedFactor="0.94" vaporized=""/>
    <tripinfo id="right_11" depart="14.00" departLane="-393645137_0" departPos="4.90" departSpeed="0.00" departDelay="4.00" arrival="63.00" arrivalLane="393625777_0" arrivalPos="296.14" arrivalSpeed="15.51" duration="49.00" routeLength="632.33" waitingTime="0.00" waitingCount="0" stopTime="0.00" timeLoss="8.18" rerouteNo="0" devices="tripinfo_right_11" vType="norm" speedFactor="1.03" vaporized=""/>
    <tripinfo id="through_4" depart="5.00" departLane="-393645137_0" departPos="4.30" departSpeed="0.00" departDelay="1.00" arrival="63.00" arrivalLane="-393645138_0" arrivalPos="300.77" arrivalSpeed="15.47" duration="58.00" routeLength="690.22" waitingTime="6.00" waitingCount="1" stopTime="0.00" timeLoss="14.66" rerouteNo="0" devices="tripinfo_through_4" vType="fast" speedFactor="1.03" vaporized=""/>
    <tripinfo id="through_15" depart="15.00" departLane="393645138_0" departPos="4.30" departSpeed="0.00" departDelay="1.00" arrival="64.00" arrivalLane="393645137_0" arrivalPos="291.20" arrivalSpeed="15.22" duration="49.00" routeLength="691.49" waitingTime="0.00" waitingCount="0" stopTime="0.00" timeLoss="5.96" rerouteNo="0" devices="tripinfo_through_15" vType="fast" speedFactor="0.93" vaporized=""/>
    <tripinfo id="through_16" depart="16.00" departLane="-393645137_0" departPos="4.30" departSpeed="0.00" departDelay="2.00" arrival="65.00" arrivalLane="-393645138_1" arrivalPos="300.77" arrivalSpeed="15.80" duration="49.00" routeLength="690.22" waitingTime="0.00" waitingCount="0" stopTime="0.00" timeLoss="5.47" rerouteNo="0" devices="tripinfo_through_16" vType="fast" speedFactor="0.88" vaporized=""/>
    <tripinfo id="through_10" depart="12.00" departLane="-393645137_0" departPos="4.90" departSpeed="0.00" departDelay="2.00" arrival="65.00" arrivalLane="-393645138_0" arrivalPos="300.77" arrivalSpeed="14.25" duration="53.00" routeLength="689.62" waitingTime="0.00" waitingCount="0" stopTime="0.00" timeLoss="8.52" rerouteNo="0" devices="tripinfo_through_10" vType="norm" speedFactor="1.09" vaporized=""/>
    <tripinfo id="through_21" depart="18.00" departLane="393645138_0" departPos="4.30" departSpeed="0.00" departDelay="0.00" arrival="66.00" arrivalLane="393645137_0" arrivalPos="291.20" arrivalSpeed="15.07" duration="48.00" routeLength="691.49" waitingTime="0.00" waitingCount="0" stopTime="0.00" timeLoss="5.25" rerouteNo="0" devices="tripinfo_through_21" vType="fast" speedFactor="1.01" vaporized=""/>
    <tripinfo id="through_23" depart="21.00" departLane="393645138_0" departPos="4.30" departSpeed="0.00" departDelay="2.00" arrival="69.00" arrivalLane="393645137_0" arrivalPos="291.20" arrivalSpeed="16.14" duration="48.00" routeLength="691.49" waitingTime="0.00" waitingCount="0" stopTime="0.00" timeLoss="4.51" rerouteNo="0" devices="tripinfo_through_23" vType="fast" speedFactor="0.89" vaporized=""/>
    <tripinfo id="right_26" depart="23.00" departLane="393645138_0" departPos="4.30" departSpeed="0.00" departDelay="1.00" arrival="71.00" arrivalLane="-393627613_0" arrivalPos="300.35" arrivalSpeed="15.73" duration="48.00" routeLength="648.63" waitingTime="0.00" waitingCount="0" stopTime="0.00" timeLoss="7.07" rerouteNo="0" devices="tripinfo_right_26" vType="fast" speedFactor="0.92" vaporized=""/>
    <tripinfo id="through_28" depart="25.00" departLane="393645138_0" departPos="4.30" departSpeed="0.00" departDelay="1.00" arrival="74.00" arrivalLane="393645137_0" arrivalPos="291.20" arrivalSpeed="14.90" duration="49.00" routeLength="691.49" waitingTime="0.00" waitingCount="0" stopTime="0.00" timeLoss="6.16" rerouteNo="0" devices="tripinfo_through_28" vType="fast" speedFactor="1.13" vaporized=""/>
    <tripinfo id="through_32" depart="30.00" departLane="393645138_0" departPos="4.30" departSpeed="0.00" departDelay="2.00" arrival="78.00" arrivalLane="393645137_0" arrivalPos="291.20" arrivalSpeed="15.53" duration="48.00" routeLength="691.49" waitingTime="0.00" waitingCount="0" stopTime="0.00" timeLoss="4.93" rerouteNo="0" devices="tripinfo_through_32" vType="fast" speedFactor="1.01" vaporized=""/>
    <tripinfo id="through_39" depart="34.00" departLane="-393645137_0" departPos="4.30" departSpeed="0.00" departDelay="0.00" arrival="82.00" arrivalLane="-393645138_0" arrivalPos="300.77" arrivalSpeed="15.65" duration="48.00" routeLength="690.22" waitingTime="0.00" waitingCount="0" stopTime="0.00" timeLoss="4.54" rerouteNo="0" devices="tripinfo_through_39" vType="fast" speedFactor="0.90" vaporized=""/>
    <tripinfo id="through_34" depart="35.00" departLane="393645138_0" departPos="4.90" departSpeed="0.00" departDelay="5.00" arrival="85.00" arrivalLane="393645137_0" arrivalPos="291.20" arrivalSpeed="15.35" duration="50.00" routeLength="690.89" waitingTime="0.00" waitingCount="0" stopTime="0.00" timeLoss="5.33" rerouteNo="0" devices="tripinfo_through_34" vType="norm" speedFactor="0.99" vaporized=""/>
    <tripinfo id="left_12" depart="13.00" departLane="393645138_0" departPos="5.60" departSpeed="0.00" departDelay="2.00" arrival="89.00" arrivalLane="393625777_1" arrivalPos="296.14" arrivalSpeed="14.00" duration="76.00" routeLength="655.76" waitingTime="21.00" waitingCount="1" stopTime="0.00" timeLoss="31.86" rerouteNo="0" devices="tripinfo_left_12" vType="slow" speedFactor="1.05" vaporized=""/>
    <tripinfo id="left_25" depart="21.00" departLane="-393645137_0" departPos="5.60" departSpeed="0.00" departDelay="0.00" arrival="91.00" arrivalLane="-393627613_1" arrivalPos="300.35" arrivalSpeed="13.50" duration="70.00" routeLength="648.88" waitingTime="15.00" waitingCount="1" stopTime="0.00" timeLoss="25.99" rerouteNo="0" devices="tripinfo_left_25" vType="slow" speedFactor="0.87" vaporized=""/>
    <tripinfo id="left_31" depart="28.00" departLane="393645138_0" departPos="4.30" departSpeed="0.00" departDelay="1.00" arrival="91.00" arrivalLane="393625777_1" arrivalPos="296.14" arrivalSpeed="15.70" duration="63.00" routeLength="657.06" waitingTime="10.00" waitingCount="1" stopTime="0.00" timeLoss="21.64" rerouteNo="0" devices="tripinfo_left_31" vType="fast" speedFactor="1.15" vaporized=""/>
    <tripinfo id="through_43" depart="46.00" departLane="393645138_0" departPos="4.90" departSpeed="0.00" departDelay="6.00" arrival="96.00" arrivalLane="393645137_0" arrivalPos="291.20" arrivalSpeed="14.62" duration="50.00" routeLength="690.89" waitingTime="0.00" waitingCount="0" stopTime="0.00" timeLoss="5.45" rerouteNo="0" devices="tripinfo_through_43" vType="norm" speedFactor="1.04" vaporized=""/>
    <tripinfo id="right_36" depart="40.00" departLane="393645138_0" departPos="5.60" departSpeed="0.00" departDelay="9.00" arrival="98.00" arrivalLane="-393627613_0" arrivalPos="300.35" arrivalSpeed="14.47" duration="58.00" routeLength="647.33" waitingTime="3.00" waitingCount="1" stopTime="0.00" timeLoss="14.20" rerouteNo="0" devices="tripinfo_right_36" vType="slow" speedFactor="0.97" vaporized=""/>
    <tripinfo id="through_54" depart="45.00" departLane="-393645137_0" departPos="4.90" departSpeed="0.00" departDelay="0.00" arrival="98.00" arrivalLane="-393645138_0" arrivalPos="300.77" arrivalSpeed="14.05" duration="53.00" routeLength="689.62" waitingTime="0.00" waitingCount="0" stopTime="0.00" timeLoss="7.93" rerouteNo="0" devices="tripinfo_through_54" vType="norm" speedFactor="1.00" vaporized=""/>
    <tripinfo id="through_35" depart="37.00" departLane="393645138_0" departPos="5.60" departSpeed="0.00" departDelay="6.00" arrival="99.00" arrivalLane="393645137_0" arrivalPos="291.20" arrivalSpeed="14.28" duration="62.00" routeLength="690.19" waitingTime="4.00" waitingCount="1" stopTime="0.00" timeLoss="15.49" rerouteNo="0" devices="tripinfo_through_35" vType="slow" speedFactor="1.02" vaporized=""/>
    <tripinfo id="through_45" depart="48.00" departLane="393645138_0" departPos="5.60" departSpeed="0.00" departDelay="7.00" arrival="100.00" arrivalLane="393645137_1" arrivalPos="291.20" arrivalSpeed="14.99" duration="52.00" routeLength="690.19" waitingTime="0.00" waitingCount="0" stopTime="0.00" timeLoss="5.15" rerouteNo="0" devices="tripinfo_through_45" vType="slow" speedFactor="1.09" vaporized=""/>
    <tripinfo id="right_63" depart="54.00" departLane="-393645137_0" departPos="4.30" departSpeed="0.00" departDelay="0.00" arrival="101.00" arrivalLane="393625777_0" arrivalPos="296.14" arrivalSpeed="15.84" duration="47.00" routeLength="632.93" waitingTime="0.00" waitingCount="0" stopTime="0.00" timeLoss="7.79" rerouteNo="0" devices="tripinfo_right_63" vType="fast" speedFactor="0.99" vaporized=""/>
    <tripinfo id="through_48" depart="51.00" departLane="393645138_0" departPos="4.30" departSpeed="0.00" departDelay="9.00" arrival="101.00" arrivalLane="393645137_1" arrivalPos="291.20" arrivalSpeed="15.30" duration="50.00" routeLength="691.49" waitingTime="0.00" waitingCount="0" stopTime="0.00" timeLoss="7.27" rerouteNo="0" devices="tripinfo_through_48" vType="fast" speedFactor="0.88" vaporized=""/>
    <tripinfo id="through_51" depart="54.00" departLane="393645138_0" departPos="4.30" departSpeed="0.00" departDelay="11.00" arrival="101.00" arrivalLane="393645137_0" arrivalPos="291.20" arrivalSpeed="16.01" duration="47.00" routeLength="691.49" waitingTime="0.00" waitingCount="0" stopTime="0.00" timeLoss="4.15" rerouteNo="0" devices="tripinfo_through_51" vType="fast" speedFactor="1.17" vaporized=""/>
    <tripinfo id="through_52" depart="56.00" departLane="393645138_0" departPos="4.30" departSpeed="0.00" departDelay="12.00" arrival="104.00" arrivalLane="393645137_0" arrivalPos="291.20" arrivalSpeed="15.91" duration="48.00" routeLength="691.49" waitingTime="0.00" waitingCount="0" stopTime="0.00" timeLoss="5.28" rerouteNo="0" devices="tripinfo_through_52" vType="fast" speedFactor="1.02" vaporized=""/>
    <tripinfo id="right_53" depart="59.00" departLane="393645138_0" departPos="4.90" departSpeed="0.00" departDelay="14.00" arrival="108.00" arrivalLane="-393627613_0" arrivalPos="300.35" arrivalSpeed="13.97" duration="49.00" routeLength="648.03" waitingTime="0.00" waitingCount="0" stopTime="0.00" timeLoss="6.69" rerouteNo="0" devices="tripinfo_right_53" vType="norm" speedFactor="1.10" vaporized=""/>
    <tripinfo id="through_67" depart="59.00" departLane="-393645137_0" departPos="4.90" departSpeed="0.00" departDelay="4.00" arrival="108.00" arrivalLane="-393645138_0" arrivalPos="300.77" arrivalSpeed="13.79" duration="49.00" routeLength="689.62" waitingTime="0.00" waitingCount="0" stopTime="0.00" timeLoss="4.61" rerouteNo="0" devices="tripinfo_through_67" vType="norm" speedFactor="0.91" vaporized=""/>
    <tripinfo id="right_79" depart="64.00" departLane="-393645137_0" departPos="4.30" departSpeed="0.00" departDelay="0.00" arrival="110.00" arrivalLane="393625777_0" arrivalPos="296.14" arrivalSpeed="14.81" duration="46.00" routeLength="632.93" waitingTime="0.00" waitingCount="0" stopTime="0.00" timeLoss="6.87" rerouteNo="0" devices="tripinfo_right_79" vType="fast" speedFactor="1.09" vaporized=""/>
    <tripinfo id="right_60" depart="64.00" departLane="393645138_0" departPos="4.90" departSpeed="0.00" departDelay="14.00" arrival="113.00" arrivalLane="-393627613_0" arrivalPos="300.35" arrivalSpeed="14.73" duration="49.00" routeLength="648.03" waitingTime="0.00" waitingCount="0" stopTime="0.00" timeLoss="7.14" rerouteNo="0" devices="tripinfo_right_60" vType="norm" speedFactor="1.08" vaporized=""/>
    <tripinfo id="through_56" depart="61.00" departLane="393645138_0" departPos="5.60" departSpeed="0.00" departDelay="15.00" arrival="113.00" arrivalLane="393645137_0" arrivalPos="291.20" arrivalSpeed="14.79" duration="52.00" routeLength="690.19" waitingTime="0.00" waitingCount="0" stopTime="0.00" timeLoss="5.44" rerouteNo="0" devices="tripinfo_through_56" vType="slow" speedFactor="0.90" vaporized=""/>
    <tripinfo id="through_61" depart="67.00" departLane="393645138_0" departPos="5.60" departSpeed="0.00" departDelay="16.00" arrival="119.00" arrivalLane="393645137_0" arrivalPos="291.20" arrivalSpeed="13.75" duration="52.00" routeLength="690.19" waitingTime="0.00" waitingCount="0" stopTime="0.00" timeLoss="5.82" rerouteNo="0" devices="tripinfo_through_61" vType="slow" speedFactor="1.12" vaporized=""/>
    <tripinfo id="through_88" depart="75.00" departLane="-393645137_0" departPos="4.30" departSpeed="0.00" departDelay="2.00" arrival="124.00" arrivalLane="-393645138_0" arrivalPos="300.77" arrivalSpeed="15.66" duration="49.00" routeLength="690.22" waitingTime="0.00" waitingCount="0" stopTime="0.00" timeLoss="5.64" rerouteNo="0" devices="tripinfo_through_88" vType="fast" speedFactor="1.01" vaporized=""/>
    <tripinfo id="through_70" depart="76.00" departLane="393645138_0" departPos="4.30" departSpeed="0.00" departDelay="18.00" arrival="125.00" arrivalLane="393645137_1" arrivalPos="291.20" arrivalSpeed="15.15" duration="49.00" routeLength="691.49" waitingTime="0.00" waitingCount="0" stopTime="0.00" timeLoss="5.39" rerouteNo="0" devices="tripinfo_through_70" vType="fast" speedFactor="1.02" vaporized=""/>
    <tripinfo id="through_68" depart="73.00" departLane="393645138_0" departPos="5.60" departSpeed="0.00" departDelay="17.00" arrival="125.00" arrivalLane="393645137_0" arrivalPos="291.20" arrivalSpeed="13.70" duration="52.00" routeLength="690.19" waitingTime="0.00" waitingCount="0" stopTime="0.00" timeLoss="5.29" rerouteNo="0" devices="tripinfo_through_68" vType="slow" speedFactor="1.04" vaporized=""/>
    <tripinfo id="through_71" depart="78.00" departLane="393645138_0" departPos="4.90" departSpeed="0.00" departDelay="18.00" arrival="128.00" arrivalLane="393645137_0" arrivalPos="291.20" arrivalSpeed="15.28" duration="50.00" routeLength="690.89" waitingTime="0.00" waitingCount="0" stopTime="0.00" timeLoss="5.51" rerouteNo="0" devices="tripinfo_through_71" vType="norm" speedFactor="0.97" vaporized=""/>
    <tripinfo id="through_92" depart="78.00" departLane="-393645137_0" departPos="5.60" departSpeed="0.00" departDelay="2.00" arrival="129.00" arrivalLane="-393645138_0" arrivalPos="300.77" arrivalSpeed="14.30" duration="51.00" routeLength="688.92" waitingTime="0.00" waitingCount="0" stopTime="0.00" timeLoss="4.91" rerouteNo="0" devices="tripinfo_through_92" vType="slow" speedFactor="0.83" vaporized=""/>
    <tripinfo id="right_76" depart="86.00" departLane="393645138_0" departPos="4.30" departSpeed="0.00" departDelay="23.00" arrival="132.00" arrivalLane="-393627613_0" arrivalPos="300.35" arrivalSpeed="15.07" duration="46.00" routeLength="648.63" waitingTime="0.00" waitingCount="0" stopTime="0.00" timeLoss="5.94" rerouteNo="0" devices="tripinfo_right_76" vType="fast" speedFactor="1.03" vaporized=""/>
    <tripinfo id="through_75" depart="83.00" departLane="393645138_0" departPos="4.30" departSpeed="0.00" departDelay="21.00" arrival="132.00" arrivalLane="393645137_1" arrivalPos="291.20" arrivalSpeed="15.05" duration="49.00" routeLength="691.49" waitingTime="0.00" waitingCount="0" stopTime="0.00" timeLoss="5.69" rerouteNo="0" devices="tripinfo_through_75" vType="fast" speedFactor="0.98" vaporized=""/>
    <tripinfo id="through_73" depart="81.00" departLane="393645138_0" departPos="5.60" departSpeed="0.00" departDelay="20.00" arrival="132.00" arrivalLane="393645137_0" arrivalPos="291.20" arrivalSpeed="14.87" duration="51.00" routeLength="690.19" waitingTime="0.00" waitingCount="0" stopTime="0.00" timeLoss="4.73" rerouteNo="0" devices="tripinfo_through_73" vType="slow" speedFactor="1.06" vaporized=""/>
    <tripinfo id="right_103" depart="89.00" departLane="-393645137_0" departPos="4.30" departSpeed="0.00" departDelay="0.00" arrival="135.00" arrivalLane="393625777_0" arrivalPos="296.14" arrivalSpeed="14.47" duration="46.00" routeLength="632.93" waitingTime="0.00" waitingCount="0" stopTime="0.00" timeLoss="6.76" rerouteNo="0" devices="tripinfo_right_103" vType="fast" speedFactor="0.95" vaporized=""/>
    <tripinfo id="through_78" depart="88.00" departLane="393645138_0" departPos="4.30" departSpeed="0.00" departDelay="24.00" arrival="137.00" arrivalLane="393645137_0" arrivalPos="291.20" arrivalSpeed="15.28" duration="49.00" routeLength="691.49" waitingTime="0.00" waitingCount="0" stopTime="0.00" timeLoss="5.84" rerouteNo="0" devices="tripinfo_through_78" vType="fast" speedFactor="1.01" vaporized=""/>
    <tripinfo id="right_115" depart="97.00" departLane="-393645137_0" departPos="4.30" departSpeed="0.00" departDelay="0.00" arrival="143.00" arrivalLane="393625777_0" arrivalPos="296.14" arrivalSpeed="15.63" duration="46.00" routeLength="632.93" waitingTime="0.00" waitingCount="0" stopTime="0.00" timeLoss="6.91" rerouteNo="0" devices="tripinfo_right_115" vType="fast" speedFactor="0.92" vaporized=""/>
    <tripinfo id="through_80" depart="91.00" departLane="393645138_0" departPos="5.60" departSpeed="0.00" departDelay="25.00" arrival="143.00" arrivalLane="393645137_0" arrivalPos="291.20" arrivalSpeed="14.72" duration="52.00" routeLength="690.19" waitingTime="0.00" waitingCount="0" stopTime="0.00" timeLoss="5.48" rerouteNo="0" devices="tripinfo_through_80" vType="slow" speedFactor="1.03" vaporized=""/>
    <tripinfo id="through_86" depart="96.00" departLane="393645138_0" departPos="4.30" departSpeed="0.00" departDelay="23.00" arrival="145.00" arrivalLane="393645137_0" arrivalPos="291.20" arrivalSpeed="14.90" duration="49.00" routeLength="691.49" waitingTime="0.00" waitingCount="0" stopTime="0.00" timeLoss="6.12" rerouteNo="0" devices="tripinfo_through_86" vType="fast" speedFactor="1.00" vaporized=""/>
    <tripinfo id="through_119" depart="99.00" departLane="-393645137_0" departPos="4.30" departSpeed="0.00" departDelay="0.00" arrival="147.00" arrivalLane="-393645138_0" arrivalPos="300.77" arrivalSpeed="15.11" duration="48.00" routeLength="690.22" waitingTime="0.00" waitingCount="0" stopTime="0.00" timeLoss="4.87" rerouteNo="0" devices="tripinfo_through_119" vType="fast" speedFactor="1.07" vaporized=""/>
    <tripinfo id="right_90" depart="99.00" departLane="393645138_0" departPos="4.90" departSpeed="0.00" departDelay="24.00" arrival="148.00" arrivalLane="-393627613_0" arrivalPos="300.35" arrivalSpeed="14.98" duration="49.00" routeLength="648.03" waitingTime="0.00" waitingCount="0" stopTime="0.00" timeLoss="6.66" rerouteNo="0" devices="tripinfo_right_90" vType="norm" speedFactor="1.02" vaporized=""/>
    <tripinfo id="through_96" depart="101.00" departLane="393645138_0" departPos="4.30" departSpeed="0.00" departDelay="23.00" arrival="150.00" arrivalLane="393645137_0" arrivalPos="291.20" arrivalSpeed="14.92" duration="49.00" routeLength="691.49" waitingTime="0.00" waitingCount="0" stopTime="0.00" timeLoss="5.97" rerouteNo="0" devices="tripinfo_through_96" vType="fast" speedFactor="1.01" vaporized=""/>
    <tripinfo id="through_20" depart="22.00" departLane="393627613_0" departPos="4.30" departSpeed="0.00" departDelay="5.00" arrival="151.00" arrivalLane="393625777_1" arrivalPos="296.14" arrivalSpeed="15.00" duration="129.00" routeLength="618.94" waitingTime="81.00" waitingCount="1" stopTime="0.00" timeLoss="90.46" rerouteNo="0" devices="tripinfo_through_20" vType="fast" speedFactor="1.02" vaporized=""/>
    <tripinfo id="through_14" depart="16.00" departLane="393627613_0" departPos="5.60" departSpeed="0.00" departDelay="5.00" arrival="152.00" arrivalLane="393625777_0" arrivalPos="296.14" arrivalSpeed="14.78" duration="136.00" routeLength="617.64" waitingTime="85.00" waitingCount="1" stopTime="0.00" timeLoss="94.76" rerouteNo="0" devices="tripinfo_through_14" vType="slow" speedFactor="0.99" vaporized=""/>
    <tripinfo id="left_9" depart="10.00" departLane="393627613_0" departPos="4.30" departSpeed="0.00" departDelay="1.00" arrival="153.00" arrivalLane="-393645138_0" arrivalPos="300.77" arrivalSpeed="15.24" duration="143.00" routeLength="659.29" waitingTime="91.00" waitingCount="1" stopTime="0.00" timeLoss="101.03" rerouteNo="0" devices="tripinfo_left_9" vType="fast" speedFactor="0.86" vaporized=""/>
    <tripinfo id="through_27" depart="27.00" departLane="393627613_0" departPos="4.30" departSpeed="0.00" departDelay="5.00" arrival="154.00" arrivalLane="393625777_0" arrivalPos="296.14" arrivalSpeed="15.25" duration="127.00" routeLength="618.94" waitingTime="77.00" waitingCount="1" stopTime="0.00" timeLoss="88.42" rerouteNo="0" devices="tripinfo_through_27" vType="fast" speedFactor="0.95" vaporized=""/>
    <tripinfo id="through_19" depart="19.00" departLane="393627613_0" departPos="5.60" departSpeed="0.00" departDelay="3.00" arrival="155.00" arrivalLane="393625777_1" arrivalPos="296.14" arrivalSpeed="14.14" duration="136.00" routeLength="617.64" waitingTime="81.00" waitingCount="2" stopTime="0.00" timeLoss="94.11" rerouteNo="0" devices="tripinfo_through_19" vType="slow" speedFactor="1.16" vaporized=""/>
    <tripinfo id="right_129" depart="106.00" departLane="-393645137_0" departPos="4.90" departSpeed="0.00" departDelay="1.00" arrival="156.00" arrivalLane="393625777_0" arrivalPos="296.14" arrivalSpeed="13.97" duration="50.00" routeLength="632.33" waitingTime="0.00" waitingCount="0" stopTime="0.00" timeLoss="9.23" rerouteNo="0" devices="tripinfo_right_129" vType="norm" speedFactor="1.01" vaporized=""/>
    <tripinfo id="right_132" depart="109.00" departLane="-393645137_0" departPos="4.30" departSpeed="0.00" departDelay="2.00" arrival="157.00" arrivalLane="393625777_1" arrivalPos="296.14" arrivalSpeed="14.74" duration="48.00" routeLength="632.93" waitingTime="0.00" waitingCount="0" stopTime="0.00" timeLoss="8.86" rerouteNo="0" devices="tripinfo_right_132" vType="fast" speedFactor="0.96" vaporized=""/>
    <tripinfo id="left_13" depart="13.00" departLane="393627613_0" departPos="5.60" departSpeed="0.00" departDelay="2.00" arrival="158.00" arrivalLane="-393645138_0" arrivalPos="300.77" arrivalSpeed="14.02" duration="145.00" routeLength="657.99" waitingTime="89.00" waitingCount="1" stopTime="0.00" timeLoss="100.31" rerouteNo="0" devices="tripinfo_left_13" vType="slow" speedFactor="1.12" vaporized=""/>
    <tripinfo id="right_134" depart="111.00" departLane="-393645137_0" departPos="4.30" departSpeed="0.00" departDelay="3.00" arrival="159.00" arrivalLane="393625777_0" arrivalPos="296.14" arrivalSpeed="15.01" duration="48.00" routeLength="632.93" waitingTime="0.00" waitingCount="0" stopTime="0.00" timeLoss="8.62" rerouteNo="0" devices="tripinfo_right_134" vType="fast" speedFactor="1.23" vaporized=""/>
    <tripinfo id="right_104" depart="107.00" departLane="393645138_0" departPos="4.90" departSpeed="0.00" departDelay="17.00" arrival="160.00" arrivalLane="-393627613_0" arrivalPos="300.35" arrivalSpeed="13.92" duration="53.00" routeLength="648.03" waitingTime="0.00" waitingCount="0" stopTime="0.00" timeLoss="10.78" rerouteNo="0" devices="tripinfo_right_104" vType="norm" speedFactor="0.89" vaporized=""/>
    <tripinfo id="through_108" depart="111.00" departLane="393645138_0" departPos="4.30" departSpeed="0.00" departDelay="18.00" arrival="160.00" arrivalLane="393645137_1" arrivalPos="291.20" arrivalSpeed="15.12" duration="49.00" routeLength="691.49" waitingTime="0.00" waitingCount="0" stopTime="0.00" timeLoss="5.92" rerouteNo="0" devices="tripinfo_through_108" vType="fast" speedFactor="1.06" vaporized=""/>
    <tripinfo id="through_101" depart="104.00" departLane="393645138_0" departPos="4.30" departSpeed="0.00" departDelay="20.00" arrival="160.00" arrivalLane="393645137_0" arrivalPos="291.20" arrivalSpeed="15.48" duration="56.00" routeLength="691.49" waitingTime="2.00" waitingCount="1" stopTime="0.00" timeLoss="12.53" rerouteNo="0" devices="tripinfo_through_101" vType="fast" speedFactor="0.96" vaporized=""/>
    <tripinfo id="through_111" depart="114.00" departLane="393645138_0" departPos="4.30" departSpeed="0.00" departDelay="20.00" arrival="162.00" arrivalLane="393645137_0" arrivalPos="291.20" arrivalSpeed="15.52" duration="48.00" routeLength="691.49" waitingTime="0.00" waitingCount="0" stopTime="0.00" timeLoss="5.13" rerouteNo="0" devices="tripinfo_through_111" vType="fast" speedFactor="0.87" vaporized=""/>
    <tripinfo id="right_106" depart="109.00" departLane="393645138_0" departPos="5.60" departSpeed="0.00" departDelay="18.00" arrival="162.00" arrivalLane="-393627613_0" arrivalPos="300.35" arrivalSpeed="14.37" duration="53.00" routeLength="647.33" waitingTime="0.00" waitingCount="0" stopTime="0.00" timeLoss="9.58" rerouteNo="0" devices="tripinfo_right_106" vType="slow" speedFactor="1.01" vaporized=""/>
    <tripinfo id="left_33" depart="33.00" departLane="393645138_0" departPos="4.90" departSpeed="0.00" departDelay="3.00" arrival="163.00" arrivalLane="393625777_1" arrivalPos="296.14" arrivalSpeed="14.18" duration="130.00" routeLength="656.46" waitingTime="71.00" waitingCount="3" stopTime="0.00" timeLoss="87.13" rerouteNo="0" devices="tripinfo_left_33" vType="norm" speedFactor="1.17" vaporized=""/>
    <tripinfo id="right_112" depart="116.00" departLane="393645138_0" departPos="4.90" departSpeed="0.00" departDelay="21.00" arrival="164.00" arrivalLane="-393627613_0" arrivalPos="300.35" arrivalSpeed="14.23" duration="48.00" routeLength="648.03" waitingTime="0.00" waitingCount="0" stopTime="0.00" timeLoss="6.07" rerouteNo="0" devices="tripinfo_right_112" vType="norm" speedFactor="1.10" vaporized=""/>