<?xml version="1.0" encoding="UTF-8"?>

<!-- generated on 3/31/2019 8:37:13 PM by SUMO gui Version 0.31.0
<?xml version="1.0" encoding="UTF-8"?>

<configuration xmlns:xsi="http://www.w3.org/2001/XMLSchema-instance" xsi:noNamespaceSchemaLocation="http://sumo.dlr.de/xsd/sumoConfiguration.xsd">

    <input>
        <net-file value="data/map.net.xml"/>
        <route-files value="data/map.rou.xml"/>
        <additional-files value="data/map.det.xml"/>
    </input>

    <output>
        <tripinfo-output value="data/tripinfo.xml"/>
    </output>

    <time>
        <begin value="0"/>
    </time>

    <processing>
        <time-to-teleport value="-1"/>
    </processing>

    <report>
        <verbose value="false"/>
        <no-warnings value="true"/>
        <no-step-log value="true"/>
    </report>

    <traci_server>
        <remote-port value="57733"/>
    </traci_server>

    <gui_only>
        <gui-settings-file value="data/customGUISettings.xml"/>
    </gui_only>

</configuration>
-->

<tripinfos xmlns:xsi="http://www.w3.org/2001/XMLSchema-instance" xsi:noNamespaceSchemaLocation="http://sumo.dlr.de/xsd/tripinfo_file.xsd">
    <tripinfo id="through_3" depart="4.00" departLane="393627613_0" departPos="4.30" departSpeed="0.00" departDelay="1.00" arrival="48.00" arrivalLane="393625777_1" arrivalPos="296.14" arrivalSpeed="15.58" duration="44.00" routeLength="618.94" waitSteps="0" timeLoss="5.17" rerouteNo="0" devices="tripinfo_through_3" vType="fast" speedFactor="1.00" vaporized=""/>
    <tripinfo id="right_1" depart="2.00" departLane="393627613_0" departPos="4.30" departSpeed="0.00" departDelay="0.00" arrival="49.00" arrivalLane="393645137_0" arrivalPos="291.20" arrivalSpeed="14.79" duration="47.00" routeLength="635.85" waitSteps="0" timeLoss="7.13" rerouteNo="0" devices="tripinfo_right_1" vType="fast" speedFactor="1.00" vaporized=""/>
    <tripinfo id="through_4" depart="5.00" departLane="-393645137_0" departPos="4.30" departSpeed="0.00" departDelay="1.00" arrival="54.00" arrivalLane="-393645138_0" arrivalPos="300.77" arrivalSpeed="14.65" duration="49.00" routeLength="690.22" waitSteps="0" timeLoss="5.90" rerouteNo="0" devices="tripinfo_through_4" vType="fast" speedFactor="1.00" vaporized=""/>
    <tripinfo id="through_2" depart="3.00" departLane="-393645137_0" departPos="4.30" departSpeed="0.00" departDelay="0.00" arrival="56.00" arrivalLane="-393645138_0" arrivalPos="300.77" arrivalSpeed="15.36" duration="53.00" routeLength="690.22" waitSteps="0" timeLoss="10.02" rerouteNo="0" devices="tripinfo_through_2" vType="fast" speedFactor="1.00" vaporized=""/>
    <tripinfo id="through_8" depart="9.00" departLane="-393645137_0" departPos="4.30" departSpeed="0.00" departDelay="0.00" arrival="57.00" arrivalLane="-393645138_1" arrivalPos="300.77" arrivalSpeed="15.19" duration="48.00" routeLength="690.22" waitSteps="0" timeLoss="5.17" rerouteNo="0" devices="tripinfo_through_8" vType="fast" speedFactor="1.00" vaporized=""/>
    <tripinfo id="through_10" depart="12.00" departLane="-393645137_0" departPos="4.90" departSpeed="0.00" departDelay="2.00" arrival="61.00" arrivalLane="-393645138_0" arrivalPos="300.77" arrivalSpeed="13.64" duration="49.00" routeLength="689.62" waitSteps="0" timeLoss="4.51" rerouteNo="0" devices="tripinfo_through_10" vType="norm" speedFactor="1.00" vaporized=""/>
    <tripinfo id="right_11" depart="14.00" departLane="-393645137_0" departPos="4.90" departSpeed="0.00" departDelay="4.00" arrival="62.00" arrivalLane="393625777_0" arrivalPos="296.14" arrivalSpeed="14.58" duration="48.00" routeLength="632.33" waitSteps="0" timeLoss="6.85" rerouteNo="0" devices="tripinfo_right_11" vType="norm" speedFactor="1.00" vaporized=""/>
    <tripinfo id="through_16" depart="16.00" departLane="-393645137_0" departPos="4.30" departSpeed="0.00" departDelay="2.00" arrival="65.00" arrivalLane="-393645138_0" arrivalPos="300.77" arrivalSpeed="15.80" duration="49.00" routeLength="690.22" waitSteps="0" timeLoss="5.80" rerouteNo="0" devices="tripinfo_through_16" vType="fast" speedFactor="1.00" vaporized=""/>
    <tripinfo id="left_25" depart="21.00" departLane="-393645137_0" departPos="5.60" departSpeed="0.00" departDelay="0.00" arrival="70.00" arrivalLane="-393627613_1" arrivalPos="300.35" arrivalSpeed="14.50" duration="49.00" routeLength="648.88" waitSteps="0" timeLoss="4.99" rerouteNo="0" devices="tripinfo_left_25" vType="slow" speedFactor="1.00" vaporized=""/>
    <tripinfo id="through_39" depart="34.00" departLane="-393645137_0" departPos="4.30" departSpeed="0.00" departDelay="0.00" arrival="82.00" arrivalLane="-393645138_0" arrivalPos="300.77" arrivalSpeed="15.74" duration="48.00" routeLength="690.22" waitSteps="0" timeLoss="4.58" rerouteNo="0" devices="tripinfo_through_39" vType="fast" speedFactor="1.00" vaporized=""/>
    <tripinfo id="through_54" depart="45.00" departLane="-393645137_0" departPos="4.90" departSpeed="0.00" departDelay="0.00" arrival="94.00" arrivalLane="-393645138_0" arrivalPos="300.77" arrivalSpeed="15.00" duration="49.00" routeLength="689.62" waitSteps="0" timeLoss="4.75" rerouteNo="0" devices="tripinfo_through_54" vType="norm" speedFactor="1.00" vaporized=""/>
    <tripinfo id="right_63" depart="54.00" departLane="-393645137_0" departPos="4.30" departSpeed="0.00" departDelay="0.00" arrival="100.00" arrivalLane="393625777_0" arrivalPos="296.14" arrivalSpeed="15.77" duration="46.00" routeLength="632.93" waitSteps="0" timeLoss="6.76" rerouteNo="0" devices="tripinfo_right_63" vType="fast" speedFactor="1.00" vaporized=""/>
    <tripinfo id="left_66" depart="56.00" departLane="-393645137_0" departPos="4.90" departSpeed="0.00" departDelay="1.00" arrival="103.00" arrivalLane="-393627613_1" arrivalPos="300.35" arrivalSpeed="15.24" duration="47.00" routeLength="649.58" waitSteps="0" timeLoss="4.98" rerouteNo="0" devices="tripinfo_left_66" vType="norm" speedFactor="1.00" vaporized=""/>
    <tripinfo id="through_67" depart="59.00" departLane="-393645137_0" departPos="4.90" departSpeed="0.00" departDelay="4.00" arrival="108.00" arrivalLane="-393645138_0" arrivalPos="300.77" arrivalSpeed="15.51" duration="49.00" routeLength="689.62" waitSteps="0" timeLoss="4.04" rerouteNo="0" devices="tripinfo_through_67" vType="norm" speedFactor="1.00" vaporized=""/>
    <tripinfo id="right_79" depart="64.00" departLane="-393645137_0" departPos="4.30" departSpeed="0.00" departDelay="0.00" arrival="110.00" arrivalLane="393625777_0" arrivalPos="296.14" arrivalSpeed="14.57" duration="46.00" routeLength="632.93" waitSteps="0" timeLoss="6.90" rerouteNo="0" devices="tripinfo_right_79" vType="fast" speedFactor="1.00" vaporized=""/>
    <tripinfo id="left_9" depart="10.00" departLane="393627613_0" departPos="4.30" departSpeed="0.00" departDelay="1.00" arrival="111.00" arrivalLane="-393645138_0" arrivalPos="300.77" arrivalSpeed="15.41" duration="101.00" routeLength="659.29" waitSteps="51" timeLoss="59.81" rerouteNo="0" devices="tripinfo_left_9" vType="fast" speedFactor="1.00" vaporized=""/>
    <tripinfo id="left_17" depart="15.00" departLane="-393625777_0" departPos="4.90" departSpeed="0.00" departDelay="0.00" arrival="112.00" arrivalLane="393645137_0" arrivalPos="291.20" arrivalSpeed="14.10" duration="97.00" routeLength="644.94" waitSteps="45" timeLoss="55.06" rerouteNo="0" devices="tripinfo_left_17" vType="norm" speedFactor="1.00" vaporized=""/>
    <tripinfo id="left_37" depart="33.00" departLane="-393625777_0" departPos="4.30" departSpeed="0.00" departDelay="0.00" arrival="113.00" arrivalLane="393645137_1" arrivalPos="291.20" arrivalSpeed="15.67" duration="80.00" routeLength="645.54" waitSteps="28" timeLoss="40.02" rerouteNo="0" devices="tripinfo_left_37" vType="fast" speedFactor="1.00" vaporized=""/>
    <tripinfo id="left_13" depart="13.00" departLane="393627613_0" departPos="5.60" departSpeed="0.00" departDelay="2.00" arrival="115.00" arrivalLane="-393645138_0" arrivalPos="300.77" arrivalSpeed="14.64" duration="102.00" routeLength="657.99" waitSteps="46" timeLoss="57.81" rerouteNo="0" devices="tripinfo_left_13" vType="slow" speedFactor="1.00" vaporized=""/>
    <tripinfo id="left_72" depart="61.00" departLane="-393645137_0" departPos="4.90" departSpeed="0.00" departDelay="1.00" arrival="116.00" arrivalLane="-393627613_1" arrivalPos="300.35" arrivalSpeed="14.60" duration="55.00" routeLength="649.58" waitSteps="7" timeLoss="12.67" rerouteNo="0" devices="tripinfo_left_72" vType="norm" speedFactor="1.00" vaporized=""/>
    <tripinfo id="left_12" depart="13.00" departLane="393645138_0" departPos="5.60" departSpeed="0.00" departDelay="2.00" arrival="118.00" arrivalLane="393625777_1" arrivalPos="296.14" arrivalSpeed="14.09" duration="105.00" routeLength="655.76" waitSteps="48" timeLoss="60.46" rerouteNo="0" devices="tripinfo_left_12" vType="slow" speedFactor="1.00" vaporized=""/>
    <tripinfo id="left_31" depart="28.00" departLane="393645138_0" departPos="4.30" departSpeed="0.00" departDelay="1.00" arrival="119.00" arrivalLane="393625777_1" arrivalPos="296.14" arrivalSpeed="14.94" duration="91.00" routeLength="657.06" waitSteps="39" timeLoss="50.35" rerouteNo="0" devices="tripinfo_left_31" vType="fast" speedFactor="1.00" vaporized=""/>
    <tripinfo id="left_87" depart="73.00" departLane="-393645137_0" departPos="4.30" departSpeed="0.00" departDelay="0.00" arrival="119.00" arrivalLane="-393627613_1" arrivalPos="300.35" arrivalSpeed="15.41" duration="46.00" routeLength="650.18" waitSteps="0" timeLoss="5.59" rerouteNo="0" devices="tripinfo_left_87" vType="fast" speedFactor="1.00" vaporized=""/>
    <tripinfo id="through_88" depart="75.00" departLane="-393645137_0" departPos="4.30" departSpeed="0.00" departDelay="2.00" arrival="124.00" arrivalLane="-393645138_0" arrivalPos="300.77" arrivalSpeed="15.91" duration="49.00" routeLength="690.22" waitSteps="0" timeLoss="5.55" rerouteNo="0" devices="tripinfo_through_88" vType="fast" speedFactor="1.00" vaporized=""/>
    <tripinfo id="through_92" depart="78.00" departLane="-393645137_0" departPos="5.60" departSpeed="0.00" departDelay="2.00" arrival="129.00" arrivalLane="-393645138_0" arrivalPos="300.77" arrivalSpeed="13.73" duration="51.00" routeLength="688.92" waitSteps="0" timeLoss="4.88" rerouteNo="0" devices="tripinfo_through_92" vType="slow" speedFactor="1.00" vaporized=""/>
    <tripinfo id="right_103" depart="89.00" departLane="-393645137_0" departPos="4.30" departSpeed="0.00" departDelay="0.00" arrival="135.00" arrivalLane="393625777_0" arrivalPos="296.14" arrivalSpeed="14.73" duration="46.00" routeLength="632.93" waitSteps="0" timeLoss="6.58" rerouteNo="0" devices="tripinfo_right_103" vType="fast" speedFactor="1.00" vaporized=""/>
    <tripinfo id="left_109" depart="93.00" departLane="-393645137_0" departPos="4.30" departSpeed="0.00" departDelay="0.00" arrival="138.00" arrivalLane="-393627613_1" arrivalPos="300.35" arrivalSpeed="14.61" duration="45.00" routeLength="650.18" waitSteps="0" timeLoss="4.68" rerouteNo="0" devices="tripinfo_left_109" vType="fast" speedFactor="1.00" vaporized=""/>
    <tripinfo id="right_115" depart="97.00" departLane="-393645137_0" departPos="4.30" departSpeed="0.00" departDelay="0.00" arrival="143.00" arrivalLane="393625777_0" arrivalPos="296.14" arrivalSpeed="14.70" duration="46.00" routeLength="632.93" waitSteps="0" timeLoss="6.46" rerouteNo="0" devices="tripinfo_right_115" vType="fast" speedFactor="1.00" vaporized=""/>
    <tripinfo id="through_119" depart="99.00" departLane="-393645137_0" departPos="4.30" departSpeed="0.00" departDelay="0.00" arrival="147.00" arrivalLane="-393645138_0" arrivalPos="300.77" arrivalSpeed="15.55" duration="48.00" routeLength="690.22" waitSteps="0" timeLoss="5.21" rerouteNo="0" devices="tripinfo_through_119" vType="fast" speedFactor="1.00" vaporized=""/>
    <tripinfo id="left_126" depart="104.00" departLane="-393645137_0" departPos="4.30" departSpeed="0.00" departDelay="0.00" arrival="150.00" arrivalLane="-393627613_1" arrivalPos="300.35" arrivalSpeed="14.46" duration="46.00" routeLength="650.18" waitSteps="0" timeLoss="5.47" rerouteNo="0" devices="tripinfo_left_126" vType="fast" speedFactor="1.00" vaporized=""/>
    <tripinfo id="right_129" depart="107.00" departLane="-393645137_0" departPos="4.90" departSpeed="0.00" departDelay="2.00" arrival="156.00" arrivalLane="393625777_0" arrivalPos="296.14" arrivalSpeed="14.51" duration="49.00" routeLength="632.33" waitSteps="0" timeLoss="8.07" rerouteNo="0" devices="tripinfo_right_129" vType="norm" speedFactor="1.00" vaporized=""/>
    <tripinfo id="right_132" depart="109.00" departLane="-393645137_0" departPos="4.30" departSpeed="0.00" departDelay="2.00" arrival="158.00" arrivalLane="393625777_1" arrivalPos="296.14" arrivalSpeed="14.75" duration="49.00" routeLength="632.93" waitSteps="0" timeLoss="9.34" rerouteNo="0" devices="tripinfo_right_132" vType="fast" speedFactor="1.00" vaporized=""/>
    <tripinfo id="right_134" depart="111.00" departLane="-393645137_0" departPos="4.30" departSpeed="0.00" departDelay="3.00" arrival="161.00" arrivalLane="393625777_0" arrivalPos="296.14" arrivalSpeed="14.96" duration="50.00" routeLength="632.93" waitSteps="0" timeLoss="10.02" rerouteNo="0" devices="tripinfo_right_134" vType="fast" speedFactor="1.00" vaporized=""/>
    <tripinfo id="right_147" depart="121.00" departLane="-393645137_0" departPos="5.60" departSpeed="0.00" departDelay="0.00" arrival="171.00" arrivalLane="393625777_0" arrivalPos="296.14" arrivalSpeed="14.39" duration="50.00" routeLength="631.63" waitSteps="0" timeLoss="7.49" rerouteNo="0" devices="tripinfo_right_147" vType="slow" speedFactor="1.00" vaporized=""/>
    <tripinfo id="left_91" depart="76.00" departLane="-393625777_0" departPos="4.90" departSpeed="0.00" departDelay="1.00" arrival="181.00" arrivalLane="393645137_0" arrivalPos="291.20" arrivalSpeed="14.16" duration="105.00" routeLength="644.94" waitSteps="55" timeLoss="63.39" rerouteNo="0" devices="tripinfo_left_91" vType="norm" speedFactor="1.00" vaporized=""/>
    <tripinfo id="left_22" depart="24.00" departLane="393627613_0" departPos="4.30" departSpeed="0.00" departDelay="6.00" arrival="182.00" arrivalLane="-393645138_0" arrivalPos="300.77" arrivalSpeed="14.65" duration="158.00" routeLength="659.29" waitSteps="100" timeLoss="116.88" rerouteNo="0" devices="tripinfo_left_22" vType="fast" speedFactor="1.00" vaporized=""/>
    <tripinfo id="left_97" depart="81.00" departLane="393627613_0" departPos="4.30" departSpeed="0.00" departDelay="2.00" arrival="184.00" arrivalLane="-393645138_0" arrivalPos="300.77" arrivalSpeed="15.27" duration="103.00" routeLength="659.29" waitSteps="51" timeLoss="61.61" rerouteNo="0" devices="tripinfo_left_97" vType="fast" speedFactor="1.00" vaporized=""/>
    <tripinfo id="left_33" depart="33.00" departLane="393645138_0" departPos="4.90" departSpeed="0.00" departDelay="3.00" arrival="186.00" arrivalLane="393625777_1" arrivalPos="296.14" arrivalSpeed="15.56" duration="153.00" routeLength="656.46" waitSteps="98" timeLoss="110.56" rerouteNo="0" devices="tripinfo_left_33" vType="norm" speedFactor="1.00" vaporized=""/>
    <tripinfo id="left_41" depart="44.00" departLane="393645138_0" departPos="5.60" departSpeed="0.00" departDelay="8.00" arrival="189.00" arrivalLane="393625777_1" arrivalPos="296.14" arrivalSpeed="14.37" duration="145.00" routeLength="655.76" waitSteps="84" timeLoss="100.29" rerouteNo="0" devices="tripinfo_left_41" vType="slow" speedFactor="1.00" vaporized=""/>
    <tripinfo id="left_99" depart="85.00" departLane="393627613_0" departPos="4.30" departSpeed="0.00" departDelay="3.00" arrival="203.00" arrivalLane="-393645138_0" arrivalPos="300.77" arrivalSpeed="14.53" duration="118.00" routeLength="659.29" waitSteps="59" timeLoss="76.40" rerouteNo="0" devices="tripinfo_left_99" vType="fast" speedFactor="1.00" vaporized=""/>
    <tripinfo id="through_5" depart="7.00" departLane="393627613_0" departPos="4.90" departSpeed="0.00" departDelay="2.00" arrival="228.00" arrivalLane="393625777_0" arrivalPos="296.14" arrivalSpeed="14.64" duration="221.00" routeLength="618.34" waitSteps="173" timeLoss="181.24" rerouteNo="0" devices="tripinfo_through_5" vType="norm" speedFactor="1.00" vaporized=""/>
    <tripinfo id="through_29" depart="25.00" departLane="-393625777_0" departPos="4.90" departSpeed="0.00" departDelay="0.00" arrival="229.00" arrivalLane="-393627613_1" arrivalPos="300.35" arrivalSpeed="14.73" duration="204.00" routeLength="618.97" waitSteps="153" timeLoss="163.40" rerouteNo="0" devices="tripinfo_through_29" vType="norm" speedFactor="1.00" vaporized=""/>
    <tripinfo id="through_14" depart="16.00" departLane="393627613_0" departPos="5.60" departSpeed="0.00" departDelay="5.00" arrival="230.00" arrivalLane="393625777_1" arrivalPos="296.14" arrivalSpeed="13.87" duration="214.00" routeLength="617.64" waitSteps="162" timeLoss="172.16" rerouteNo="0" devices="tripinfo_through_14" vType="slow" speedFactor="1.00" vaporized=""/>
    <tripinfo id="through_58" depart="48.00" departLane="-393625777_0" departPos="4.30" departSpeed="0.00" departDelay="0.00" arrival="230.00" arrivalLane="-393627613_1" arrivalPos="300.35" arrivalSpeed="15.43" duration="182.00" routeLength="619.57" waitSteps="133" timeLoss="143.64" rerouteNo="0" devices="tripinfo_through_58" vType="fast" speedFactor="1.00" vaporized=""/>
    <tripinfo id="through_18" depart="17.00" departLane="-393625777_0" departPos="5.60" departSpeed="0.00" departDelay="1.00" arrival="230.00" arrivalLane="-393627613_0" arrivalPos="300.35" arrivalSpeed="13.59" duration="213.00" routeLength="618.27" waitSteps="162" timeLoss="171.05" rerouteNo="0" devices="tripinfo_through_18" vType="slow" speedFactor="1.00" vaporized=""/>
    <tripinfo id="through_19" depart="19.00" departLane="393627613_0" departPos="5.60" departSpeed="0.00" departDelay="3.00" arrival="231.00" arrivalLane="393625777_0" arrivalPos="296.14" arrivalSpeed="14.32" duration="212.00" routeLength="617.64" waitSteps="160" timeLoss="170.55" rerouteNo="0" devices="tripinfo_through_19" vType="slow" speedFactor="1.00" vaporized=""/>
    <tripinfo id="right_24" depart="20.00" departLane="-393625777_0" departPos="4.90" departSpeed="0.00" departDelay="0.00" arrival="232.00" arrivalLane="-393645138_0" arrivalPos="300.77" arrivalSpeed="13.82" duration="212.00" routeLength="641.55" waitSteps="160" timeLoss="170.77" rerouteNo="0" devices="tripinfo_right_24" vType="norm" speedFactor="1.00" vaporized=""/>
    <tripinfo id="through_20" depart="22.00" departLane="393627613_0" departPos="4.30" departSpeed="0.00" departDelay="5.00" arrival="232.00" arrivalLane="393625777_1" arrivalPos="296.14" arrivalSpeed="15.23" duration="210.00" routeLength="618.94" waitSteps="158" timeLoss="170.87" rerouteNo="0" devices="tripinfo_through_20" vType="fast" speedFactor="1.00" vaporized=""/>
    <tripinfo id="through_77" depart="64.00" departLane="-393625777_0" departPos="4.30" departSpeed="0.00" departDelay="1.00" arrival="232.00" arrivalLane="-393627613_1" arrivalPos="300.35" arrivalSpeed="15.42" duration="168.00" routeLength="619.57" waitSteps="117" timeLoss="129.32" rerouteNo="0" devices="tripinfo_through_77" vType="fast" speedFactor="1.00" vaporized=""/>
    <tripinfo id="right_46" depart="41.00" departLane="-393625777_0" departPos="5.60" departSpeed="0.00" departDelay="0.00" arrival="236.00" arrivalLane="-393645138_0" arrivalPos="300.77" arrivalSpeed="14.56" duration="195.00" routeLength="640.85" waitSteps="141" timeLoss="151.53" rerouteNo="0" devices="tripinfo_right_46" vType="slow" speedFactor="1.00" vaporized=""/>
    <tripinfo id="right_49" depart="44.00" departLane="-393625777_0" departPos="4.30" departSpeed="0.00" departDelay="2.00" arrival="238.00" arrivalLane="-393645138_0" arrivalPos="300.77" arrivalSpeed="14.74" duration="194.00" routeLength="642.15" waitSteps="138" timeLoss="153.57" rerouteNo="0" devices="tripinfo_right_49" vType="fast" speedFactor="1.00" vaporized=""/>
    <tripinfo id="right_64" depart="54.00" departLane="-393625777_0" departPos="4.30" departSpeed="0.00" departDelay="0.00" arrival="239.00" arrivalLane="-393645138_0" arrivalPos="300.77" arrivalSpeed="14.70" duration="185.00" routeLength="642.15" waitSteps="131" timeLoss="145.27" rerouteNo="0" devices="tripinfo_right_64" vType="fast" speedFactor="1.00" vaporized=""/>
    <tripinfo id="through_30" depart="29.00" departLane="393627613_0" departPos="4.90" departSpeed="0.00" departDelay="4.00" arrival="291.00" arrivalLane="393625777_1" arrivalPos="296.14" arrivalSpeed="14.36" duration="262.00" routeLength="618.34" waitSteps="208" timeLoss="222.04" rerouteNo="0" devices="tripinfo_through_30" vType="norm" speedFactor="1.00" vaporized=""/>
    <tripinfo id="through_27" depart="27.00" departLane="393627613_0" departPos="4.30" departSpeed="0.00" departDelay="5.00" arrival="291.00" arrivalLane="393625777_0" arrivalPos="296.14" arrivalSpeed="15.06" duration="264.00" routeLength="618.94" waitSteps="210" timeLoss="224.97" rerouteNo="0" devices="tripinfo_through_27" vType="fast" speedFactor="1.00" vaporized=""/>
    <tripinfo id="through_84" depart="71.00" departLane="-393625777_0" departPos="4.90" departSpeed="0.00" departDelay="1.00" arrival="292.00" arrivalLane="-393627613_0" arrivalPos="300.35" arrivalSpeed="13.86" duration="221.00" routeLength="618.97" waitSteps="162" timeLoss="180.48" rerouteNo="0" devices="tripinfo_through_84" vType="norm" speedFactor="1.00" vaporized=""/>
    <tripinfo id="through_38" depart="33.00" departLane="393627613_0" departPos="4.30" departSpeed="0.00" departDelay="0.00" arrival="292.00" arrivalLane="393625777_0" arrivalPos="296.14" arrivalSpeed="16.07" duration="259.00" routeLength="618.94" waitSteps="204" timeLoss="220.56" rerouteNo="0" devices="tripinfo_through_38" vType="fast" speedFactor="1.00" vaporized=""/>
    <tripinfo id="through_40" depart="35.00" departLane="393627613_0" departPos="4.30" departSpeed="0.00" departDelay="1.00" arrival="293.00" arrivalLane="393625777_1" arrivalPos="296.14" arrivalSpeed="15.13" duration="258.00" routeLength="618.94" waitSteps="203" timeLoss="219.42" rerouteNo="0" devices="tripinfo_through_40" vType="fast" speedFactor="1.00" vaporized=""/>
    <tripinfo id="right_94" depart="78.00" departLane="-393625777_0" departPos="4.30" departSpeed="0.00" departDelay="1.00" arrival="294.00" arrivalLane="-393645138_0" arrivalPos="300.77" arrivalSpeed="14.89" duration="216.00" routeLength="642.15" waitSteps="156" timeLoss="175.81" rerouteNo="0" devices="tripinfo_right_94" vType="fast" speedFactor="1.00" vaporized=""/>
    <tripinfo id="through_74" depart="61.00" departLane="-393625777_0" departPos="5.60" departSpeed="0.00" departDelay="0.00" arrival="294.00" arrivalLane="-393627613_1" arrivalPos="300.35" arrivalSpeed="14.60" duration="233.00" routeLength="618.27" waitSteps="169" timeLoss="190.92" rerouteNo="0" devices="tripinfo_through_74" vType="slow" speedFactor="1.00" vaporized=""/>
    <tripinfo id="through_82" depart="68.00" departLane="-393625777_0" departPos="4.30" departSpeed="0.00" departDelay="0.00" arrival="295.00" arrivalLane="-393627613_1" arrivalPos="300.35" arrivalSpeed="14.74" duration="227.00" routeLength="619.57" waitSteps="168" timeLoss="188.67" rerouteNo="0" devices="tripinfo_through_82" vType="fast" speedFactor="1.00" vaporized=""/>
    <tripinfo id="right_105" depart="90.00" departLane="-393625777_0" departPos="4.90" departSpeed="0.00" departDelay="0.00" arrival="297.00" arrivalLane="-393645138_0" arrivalPos="300.77" arrivalSpeed="14.62" duration="207.00" routeLength="641.55" waitSteps="144" timeLoss="165.41" rerouteNo="0" devices="tripinfo_right_105" vType="norm" speedFactor="1.00" vaporized=""/>
    <tripinfo id="through_118" depart="101.00" departLane="-393625777_0" departPos="4.30" departSpeed="0.00" departDelay="3.00" arrival="354.00" arrivalLane="-393627613_0" arrivalPos="300.35" arrivalSpeed="15.57" duration="253.00" routeLength="619.57" waitSteps="187" timeLoss="214.38" rerouteNo="0" devices="tripinfo_through_118" vType="fast" speedFactor="1.00" vaporized=""/>
    <tripinfo id="through_42" depart="38.00" departLane="393627613_0" departPos="4.30" departSpeed="0.00" departDelay="0.00" arrival="354.00" arrivalLane="393625777_0" arrivalPos="296.14" arrivalSpeed="15.26" duration="316.00" routeLength="618.94" waitSteps="255" timeLoss="276.93" rerouteNo="0" devices="tripinfo_through_42" vType="fast" speedFactor="1.00" vaporized=""/>
    <tripinfo id="through_89" depart="73.00" departLane="-393625777_0" departPos="4.30" departSpeed="0.00" departDelay="0.00" arrival="355.00" arrivalLane="-393627613_0" arrivalPos="300.35" arrivalSpeed="14.59" duration="282.00" routeLength="619.57" waitSteps="221" timeLoss="242.85" rerouteNo="0" devices="tripinfo_through_89" vType="fast" speedFactor="1.00" vaporized=""/>
    <tripinfo id="through_44" depart="41.00" departLane="393627613_0" departPos="4.90" departSpeed="0.00" departDelay="1.00" arrival="355.00" arrivalLane="393625777_0" arrivalPos="296.14" arrivalSpeed="14.38" duration="314.00" routeLength="618.34" waitSteps="253" timeLoss="273.59" rerouteNo="0" devices="tripinfo_through_44" vType="norm" speedFactor="1.00" vaporized=""/>
    <tripinfo id="through_107" depart="92.00" departLane="-393625777_0" departPos="4.30" departSpeed="0.00" departDelay="0.00" arrival="356.00" arrivalLane="-393627613_1" arrivalPos="300.35" arrivalSpeed="16.19" duration="264.00" routeLength="619.57" waitSteps="200" timeLoss="225.60" rerouteNo="0" devices="tripinfo_through_107" vType="fast" speedFactor="1.00" vaporized=""/>
    <tripinfo id="through_50" depart="46.00" departLane="393627613_0" departPos="4.30" departSpeed="0.00" departDelay="4.00" arrival="357.00" arrivalLane="393625777_1" arrivalPos="296.14" arrivalSpeed="15.51" duration="311.00" routeLength="618.94" waitSteps="246" timeLoss="271.82" rerouteNo="0" devices="tripinfo_through_50" vType="fast" speedFactor="1.00" vaporized=""/>
    <tripinfo id="through_121" depart="104.00" departLane="-393625777_0" departPos="4.90" departSpeed="0.00" departDelay="4.00" arrival="357.00" arrivalLane="-393627613_0" arrivalPos="300.35" arrivalSpeed="14.63" duration="253.00" routeLength="618.97" waitSteps="185" timeLoss="212.64" rerouteNo="0" devices="tripinfo_through_121" vType="norm" speedFactor="1.00" vaporized=""/>
    <tripinfo id="through_47" depart="43.00" departLane="393627613_0" departPos="5.60" departSpeed="0.00" departDelay="2.00" arrival="357.00" arrivalLane="393625777_0" arrivalPos="296.14" arrivalSpeed="13.77" duration="314.00" routeLength="617.64" waitSteps="250" timeLoss="272.25" rerouteNo="0" devices="tripinfo_through_47" vType="slow" speedFactor="1.00" vaporized=""/>
    <tripinfo id="through_55" depart="48.00" departLane="393627613_0" departPos="4.90" departSpeed="0.00" departDelay="3.00" arrival="383.00" arrivalLane="393625777_1" arrivalPos="296.14" arrivalSpeed="14.93" duration="335.00" routeLength="618.34" waitSteps="264" timeLoss="294.41" rerouteNo="0" devices="tripinfo_through_55" vType="norm" speedFactor="1.00" vaporized=""/>
    <tripinfo id="through_57" depart="51.00" departLane="393627613_0" departPos="5.60" departSpeed="0.00" departDelay="5.00" arrival="383.00" arrivalLane="393625777_0" arrivalPos="296.14" arrivalSpeed="14.05" duration="332.00" routeLength="617.64" waitSteps="261" timeLoss="290.42" rerouteNo="0" devices="tripinfo_through_57" vType="slow" speedFactor="1.00" vaporized=""/>
    <tripinfo id="through_114" depart="96.00" departLane="-393625777_0" departPos="5.60" departSpeed="0.00" departDelay="0.00" arrival="384.00" arrivalLane="-393627613_1" arrivalPos="300.35" arrivalSpeed="14.10" duration="288.00" routeLength="618.27" waitSteps="218" timeLoss="245.95" rerouteNo="0" devices="tripinfo_through_114" vType="slow" speedFactor="1.00" vaporized=""/>
    <tripinfo id="through_122" depart="106.00" departLane="-393625777_0" departPos="5.60" departSpeed="0.00" departDelay="5.00" arrival="384.00" arrivalLane="-393627613_0" arrivalPos="300.35" arrivalSpeed="13.97" duration="278.00" routeLength="618.27" waitSteps="198" timeLoss="236.51" rerouteNo="0" devices="tripinfo_through_122" vType="slow" speedFactor="1.00" vaporized=""/>
    <tripinfo id="through_59" depart="54.00" departLane="393627613_0" departPos="4.30" departSpeed="0.00" departDelay="6.00" arrival="385.00" arrivalLane="393625777_1" arrivalPos="296.14" arrivalSpeed="15.78" duration="331.00" routeLength="618.94" waitSteps="259" timeLoss="291.62" rerouteNo="0" devices="tripinfo_through_59" vType="fast" speedFactor="1.00" vaporized=""/>
    <tripinfo id="through_65" depart="57.00" departLane="393627613_0" departPos="4.30" departSpeed="0.00" departDelay="3.00" arrival="385.00" arrivalLane="393625777_0" arrivalPos="296.14" arrivalSpeed="15.64" duration="328.00" routeLength="618.94" waitSteps="257" timeLoss="288.92" rerouteNo="0" devices="tripinfo_through_65" vType="fast" speedFactor="1.00" vaporized=""/>
    <tripinfo id="through_116" depart="98.00" departLane="-393625777_0" departPos="4.30" departSpeed="0.00" departDelay="1.00" arrival="386.00" arrivalLane="-393627613_1" arrivalPos="300.35" arrivalSpeed="15.32" duration="288.00" routeLength="619.57" waitSteps="214" timeLoss="248.77" rerouteNo="0" devices="tripinfo_through_116" vType="fast" speedFactor="1.00" vaporized=""/>
    <tripinfo id="through_127" depart="109.00" departLane="-393625777_0" departPos="4.30" departSpeed="0.00" departDelay="5.00" arrival="386.00" arrivalLane="-393627613_0" arrivalPos="300.35" arrivalSpeed="14.95" duration="277.00" routeLength="619.57" waitSteps="204" timeLoss="238.15" rerouteNo="0" devices="tripinfo_through_127" vType="fast" speedFactor="1.00" vaporized=""/>